<?xml version="1.0" ?>
<VTKFile byte_order="LittleEndian" type="UnstructuredGrid" version="0.1">
<UnstructuredGrid>
<Piece NumberOfCells="24" NumberOfPoints="13">
<Points>
<DataArray Name="vertices" NumberOfComponents="3" format="ascii" type="Float32">0 0 0 1 0 0 1 1 0 0 1 0 0.5 1 0 1 0.5 0 0.5 0 0 0 0.5 0 0.5 0.5 0 0.25 0.75 0 0.75 0.25 0 0.25 0.25 0 0.75 0.75 0 </DataArray>
</Points>
<Cells>
<DataArray Name="connectivity" format="ascii" type="Int32">3 4 4 2 1 5 5 2 1 6 6 0 3 7 7 0 7 11 0 0 11 6 6 8 10 4 8 9 2 5 12 4 2 12 7 9 11 6 11 8 10 8 12 4 12 8 9 8 11 5 10 12 3 4 9 5 1 10 3 9 7 1 6 10 </DataArray>
<DataArray Name="offsets" format="ascii" type="Int32">2 4 6 8 10 12 14 16 19 22 25 28 31 34 37 40 43 46 49 52 55 58 61 64 </DataArray>
<DataArray Name="types" format="ascii" type="UInt8">3 3 3 3 3 3 3 3 5 5 5 5 5 5 5 5 5 5 5 5 5 5 5 5 </DataArray>
</Cells>
<PointData/>
<CellData>
<DataArray Name="cdata 0" NumberOfComponents="1" format="ascii" type="Float32">1 1 1 1 1 1 1 1 2 2 2 2 2 2 2 2 2 2 2 2 2 2 2 2 </DataArray>
</CellData>
</Piece>
</UnstructuredGrid>
</VTKFile>
